                         Program Version 5.0.3 -  RELEASE  -
|  1> ! PBE0 NOCOSX NORI 6-31G** TightSCF OPT CPCM
|  2> %Pal NProcs 16 end
|  3> %MaxCore 2000
|  4> %SCF
|  5>     AutoTRAH    True
|  6>     CNVDamp     False
|  7>     CNVZerner   False
|  8>     end
|  9> %cis
| 10>     NRoots      10
| 11>     Triplets    false
| 12>     TDA         true
| 13>     IRoot       1
| 14>     DoSOC       false
| 15>     DoNTO       True
| 16>     end
| 17> %cpcm
| 18>     epsilon     2.3741
| 19>     refrac      1.497
| 20>     fepstype    CPCM
| 21>     end
| 22> *xyz 0 1
| 23> C             1.38175700    -0.22169400     0.00550500
| 24> C             0.50610300    -1.30613000    -0.00879600
| 25> C            -0.87083100    -1.08979300    -0.01383600
| 26> C            -1.37221100     0.21073900    -0.00450100
| 27> C            -0.49656000     1.29512600     0.00983900
| 28> C             0.88041100     1.07880700     0.01479200
| 29> H             2.45525100    -0.39028200     0.00941600
| 30> H             0.89692800    -2.32005100    -0.01597600
| 31> H            -1.55361700    -1.93508900    -0.02508900
| 32> H            -2.44572000     0.37922800    -0.00839700
| 33> H            -0.88733900     2.30906500     0.01719600
| 34> H             1.56317800     1.92411700     0.02585500
| 35> *
| 36>
| 37>
| 38>                          ****END OF INPUT****
 Total Charge           Charge          ....    0
 Multiplicity           Mult            ....    1
 Number of Electrons    NEL             ....   42
FINAL SINGLE POINT ENERGY      -231.764650837281
FINAL SINGLE POINT ENERGY      -231.769386801042
FINAL SINGLE POINT ENERGY      -231.769538447273
                    ***********************HURRAY********************

CARTESIAN COORDINATES (ANGSTROEM)
---------------------------------
  C      1.411556   -0.226376    0.005657
  C      0.516960   -1.334314   -0.009010
  C     -0.889862   -1.113361   -0.014165
  C     -1.401999    0.215389   -0.004654
  C     -0.507403    1.323321    0.010034
  C      0.899422    1.102371    0.015142
  H      2.483172   -0.394626    0.009492
  H      0.907080   -2.346452   -0.016231
  H     -1.571451   -1.957157   -0.025292
  H     -2.473620    0.383607   -0.008483
  H     -0.897505    2.335466    0.017325
  H      1.581000    1.946176    0.026194

 Multiplicity           Mult            ....    1
 Number of Electrons    NEL             ....   42
 Basis Dimension        Dim             ....  114

ORBITAL ENERGIES
----------------

  NO   OCC          E(Eh)            E(eV)
   0   2.0000     -10.239717      -278.6369
   1   2.0000     -10.239545      -278.6322
   2   2.0000     -10.239541      -278.6321
   3   2.0000     -10.239131      -278.6209
   4   2.0000     -10.239127      -278.6208
   5   2.0000     -10.238940      -278.6157
   6   2.0000      -0.860465       -23.4144
   7   2.0000      -0.756946       -20.5975
   8   2.0000      -0.756942       -20.5975
   9   2.0000      -0.613179       -16.6854
  10   2.0000      -0.613164       -16.6850
  11   2.0000      -0.526828       -14.3357
  12   2.0000      -0.476856       -12.9759
  13   2.0000      -0.445483       -12.1222
  14   2.0000      -0.425937       -11.5903
  15   2.0000      -0.425917       -11.5898
  16   2.0000      -0.367844       -10.0096
  17   2.0000      -0.349636        -9.5141
  18   2.0000      -0.349615        -9.5135
  19   2.0000      -0.256075        -6.9682
  20   2.0000      -0.256074        -6.9681
  21   0.0000      -0.000328        -0.0089
  22   0.0000      -0.000316        -0.0086
  23   0.0000       0.108252         2.9457
  24   0.0000       0.156382         4.2554
  25   0.0000       0.164118         4.4659

MULLIKEN ATOMIC CHARGES
-----------------------
   0 C :   -0.143590
   1 C :   -0.143528
   2 C :   -0.143482
   3 C :   -0.143589
   4 C :   -0.143527
   5 C :   -0.143478
   6 H :    0.143516
   7 H :    0.143543
   8 H :    0.143538
   9 H :    0.143516
  10 H :    0.143543
  11 H :    0.143538
Sum of atomic charges:   -0.0000000

LOEWDIN ATOMIC CHARGES
----------------------
   0 C :   -0.087629
   1 C :   -0.087614
   2 C :   -0.087609
   3 C :   -0.087630
   4 C :   -0.087613
   5 C :   -0.087608
   6 H :    0.087608
   7 H :    0.087623
   8 H :    0.087620
   9 H :    0.087608
  10 H :    0.087623
  11 H :    0.087620

  Mayer bond orders larger than 0.100000
B(  0-C ,  1-C ) :   1.4388 B(  0-C ,  5-C ) :   1.4388 B(  0-C ,  6-H ) :   0.9399
B(  1-C ,  2-C ) :   1.4387 B(  1-C ,  7-H ) :   0.9399 B(  2-C ,  3-C ) :   1.4388
B(  2-C ,  8-H ) :   0.9399 B(  3-C ,  4-C ) :   1.4388 B(  3-C ,  9-H ) :   0.9399
B(  4-C ,  5-C ) :   1.4387 B(  4-C , 10-H ) :   0.9399 B(  5-C , 11-H ) :   0.9399

-----------------------------------------------------------------------------
         ABSORPTION SPECTRUM VIA TRANSITION ELECTRIC DIPOLE MOMENTS
-----------------------------------------------------------------------------
State   Energy    Wavelength  fosc         T2        TX        TY        TZ
        (cm-1)      (nm)                 (au**2)    (au)      (au)      (au)
-----------------------------------------------------------------------------
   1   43534.6    229.7   0.000000017   0.00000  -0.00033   0.00013  -0.00001
   2   51370.9    194.7   0.000000481   0.00000   0.00156   0.00081  -0.00007
   3   59858.2    167.1   1.087369886   5.98038  -0.58110  -2.37531  -0.02466
   4   59867.6    167.0   1.086609216   5.97526  -2.37427   0.58141  -0.00685
   5   62045.0    161.2   0.000000293   0.00000  -0.00041   0.00116  -0.00021
   6   62887.1    159.0   0.000000257   0.00000  -0.00035   0.00025  -0.00107
   7   62888.4    159.0   0.000000784   0.00000  -0.00022  -0.00026  -0.00200
   8   62999.3    158.7   0.005438179   0.02842   0.00165   0.00168  -0.16856
   9   68729.0    145.5   0.000000004   0.00000  -0.00008   0.00011   0.00000
  10   68734.0    145.5   0.000000004   0.00000   0.00011   0.00008   0.00000

FINAL SINGLE POINT ENERGY      -231.769539246948

DIPOLE MOMENT
-------------
                                X             Y             Z
Electronic contribution:     -0.00000       0.00001       0.00000
Nuclear contribution   :      0.00000      -0.00001       0.00000
                        -----------------------------------------
Total Dipole Moment    :     -0.00000      -0.00000       0.00000
                        -----------------------------------------
Magnitude (a.u.)       :      0.00000
Magnitude (Debye)      :      0.00000

Rotational constants in cm-1:     0.183028     0.183011     0.091510
Rotational constants in MHz :  5487.049306  5486.539650  2743.397234

                             ****ORCA TERMINATED NORMALLY****
TOTAL RUN TIME: 0 days 0 hours 1 minutes 55 seconds 575 msec
